! Sonnet Data File
! From: em Version : 18.53-Lite
! From Project: sq_coil001
! Data is De-embedded 
! Data File Written: 12/10/2022 15:43:45
!< HDATE 12/10/2022 15:07:21
!< MDATE 12/10/2022 15:07:21
# GHZ S RI R 50.00000
0.013000000000000 0.9164565672455 0.3985576518137
0.014000000000000 0.9300861798474 0.3654740590787
