! Sonnet Data File
! From: em Version : 18.54
! From Project: sq_coil002
! Data is De-embedded 
! Data File Written: 12/10/2022 23:13:04
!< HDATE 12/10/2022 22:51:52
!< MDATE 12/10/2022 22:51:52
# GHZ S RI R 50.00000
0.013000000000000 0.9207551276208 0.3861987885604 0.0134872957414 -0.032170506161 0.0134872957414 -0.032170506162 0.9196281318077 0.3890296769864
0.014000000000000 0.9344182852588 0.3518091208481 0.0116190594735 -0.030880832380 0.0116190594735 -0.030880832380 0.9332814017391 0.3549983006867
