! Sonnet Data File
! From: em Version : 18.54
! From Project: sq_coil004
! Data is De-embedded 
! Data File Written: 12/10/2022 23:47:44
!< HDATE 12/10/2022 23:47:08
!< MDATE 12/10/2022 23:47:08
# GHZ S RI R 50.00000
0.013000000000000 0.9206456838051 0.3859665911042 0.0153271294137 -0.036803708382 0.0153271294137 -0.036803708382 0.9195945101714 0.3884677608378
0.014000000000000 0.9342993307620 0.3515665656362 0.0134102713432 -0.035956907376 0.0134102713432 -0.035956907376 0.9334104226594 0.3539235637257
