! Sonnet Data File
! From: em Version : 18.54
! From Project: sq_coil003
! Data is De-embedded 
! Data File Written: 12/10/2022 23:43:47
!< HDATE 12/10/2022 23:43:14
!< MDATE 12/10/2022 23:43:14
# GHZ S RI R 50.00000
0.013000000000000 0.9206456838051 0.3859665911042 -0.015327129414 0.0368037083824 -0.015327129414 0.0368037083824 0.9195945101714 0.3884677608378
0.014000000000000 0.9342993307620 0.3515665656362 -0.013410271343 0.0359569073756 -0.013410271343 0.0359569073757 0.9334104226594 0.3539235637257
